<VTKFile type="UnstructuredGrid" version="1.0" byte_order="LittleEndian">
<UnstructuredGrid>
<Piece NumberOfPoints="121" NumberOfCells="100">
<Points>
<DataArray type="Float64" NumberOfComponents="3" format="ascii">
0.0e+00 0.0e+00 0 
0.0e+00 1.0e-01 0 
0.0e+00 2.0e-01 0 
0.0e+00 3.0e-01 0 
0.0e+00 4.0e-01 0 
0.0e+00 5.0e-01 0 
0.0e+00 6.0e-01 0 
0.0e+00 7.0e-01 0 
0.0e+00 8.0e-01 0 
0.0e+00 9.0e-01 0 
0.0e+00 1.0e+00 0 
1.0e-01 0.0e+00 0 
1.0e-01 1.0e-01 0 
1.0e-01 2.0e-01 0 
1.0e-01 3.0e-01 0 
1.0e-01 4.0e-01 0 
1.0e-01 5.0e-01 0 
1.0e-01 6.0e-01 0 
1.0e-01 7.0e-01 0 
1.0e-01 8.0e-01 0 
1.0e-01 9.0e-01 0 
1.0e-01 1.0e+00 0 
2.0e-01 0.0e+00 0 
2.0e-01 1.0e-01 0 
2.0e-01 2.0e-01 0 
2.0e-01 3.0e-01 0 
2.0e-01 4.0e-01 0 
2.0e-01 5.0e-01 0 
2.0e-01 6.0e-01 0 
2.0e-01 7.0e-01 0 
2.0e-01 8.0e-01 0 
2.0e-01 9.0e-01 0 
2.0e-01 1.0e+00 0 
3.0e-01 0.0e+00 0 
3.0e-01 1.0e-01 0 
3.0e-01 2.0e-01 0 
3.0e-01 3.0e-01 0 
3.0e-01 4.0e-01 0 
3.0e-01 5.0e-01 0 
3.0e-01 6.0e-01 0 
3.0e-01 7.0e-01 0 
3.0e-01 8.0e-01 0 
3.0e-01 9.0e-01 0 
3.0e-01 1.0e+00 0 
4.0e-01 0.0e+00 0 
4.0e-01 1.0e-01 0 
4.0e-01 2.0e-01 0 
4.0e-01 3.0e-01 0 
4.0e-01 4.0e-01 0 
4.0e-01 5.0e-01 0 
4.0e-01 6.0e-01 0 
4.0e-01 7.0e-01 0 
4.0e-01 8.0e-01 0 
4.0e-01 9.0e-01 0 
4.0e-01 1.0e+00 0 
5.0e-01 0.0e+00 0 
5.0e-01 1.0e-01 0 
5.0e-01 2.0e-01 0 
5.0e-01 3.0e-01 0 
5.0e-01 4.0e-01 0 
5.0e-01 5.0e-01 0 
5.0e-01 6.0e-01 0 
5.0e-01 7.0e-01 0 
5.0e-01 8.0e-01 0 
5.0e-01 9.0e-01 0 
5.0e-01 1.0e+00 0 
6.0e-01 0.0e+00 0 
6.0e-01 1.0e-01 0 
6.0e-01 2.0e-01 0 
6.0e-01 3.0e-01 0 
6.0e-01 4.0e-01 0 
6.0e-01 5.0e-01 0 
6.0e-01 6.0e-01 0 
6.0e-01 7.0e-01 0 
6.0e-01 8.0e-01 0 
6.0e-01 9.0e-01 0 
6.0e-01 1.0e+00 0 
7.0e-01 0.0e+00 0 
7.0e-01 1.0e-01 0 
7.0e-01 2.0e-01 0 
7.0e-01 3.0e-01 0 
7.0e-01 4.0e-01 0 
7.0e-01 5.0e-01 0 
7.0e-01 6.0e-01 0 
7.0e-01 7.0e-01 0 
7.0e-01 8.0e-01 0 
7.0e-01 9.0e-01 0 
7.0e-01 1.0e+00 0 
8.0e-01 0.0e+00 0 
8.0e-01 1.0e-01 0 
8.0e-01 2.0e-01 0 
8.0e-01 3.0e-01 0 
8.0e-01 4.0e-01 0 
8.0e-01 5.0e-01 0 
8.0e-01 6.0e-01 0 
8.0e-01 7.0e-01 0 
8.0e-01 8.0e-01 0 
8.0e-01 9.0e-01 0 
8.0e-01 1.0e+00 0 
9.0e-01 0.0e+00 0 
9.0e-01 1.0e-01 0 
9.0e-01 2.0e-01 0 
9.0e-01 3.0e-01 0 
9.0e-01 4.0e-01 0 
9.0e-01 5.0e-01 0 
9.0e-01 6.0e-01 0 
9.0e-01 7.0e-01 0 
9.0e-01 8.0e-01 0 
9.0e-01 9.0e-01 0 
9.0e-01 1.0e+00 0 
1.0e+00 0.0e+00 0 
1.0e+00 1.0e-01 0 
1.0e+00 2.0e-01 0 
1.0e+00 3.0e-01 0 
1.0e+00 4.0e-01 0 
1.0e+00 5.0e-01 0 
1.0e+00 6.0e-01 0 
1.0e+00 7.0e-01 0 
1.0e+00 8.0e-01 0 
1.0e+00 9.0e-01 0 
1.0e+00 1.0e+00 0 
</DataArray>
</Points>
<Cells>
<DataArray type="Int64" Name="connectivity" format="ascii">
0 1 12 11 
1 2 13 12 
2 3 14 13 
3 4 15 14 
4 5 16 15 
5 6 17 16 
6 7 18 17 
7 8 19 18 
8 9 20 19 
9 10 21 20 
11 12 23 22 
12 13 24 23 
13 14 25 24 
14 15 26 25 
15 16 27 26 
16 17 28 27 
17 18 29 28 
18 19 30 29 
19 20 31 30 
20 21 32 31 
22 23 34 33 
23 24 35 34 
24 25 36 35 
25 26 37 36 
26 27 38 37 
27 28 39 38 
28 29 40 39 
29 30 41 40 
30 31 42 41 
31 32 43 42 
33 34 45 44 
34 35 46 45 
35 36 47 46 
36 37 48 47 
37 38 49 48 
38 39 50 49 
39 40 51 50 
40 41 52 51 
41 42 53 52 
42 43 54 53 
44 45 56 55 
45 46 57 56 
46 47 58 57 
47 48 59 58 
48 49 60 59 
49 50 61 60 
50 51 62 61 
51 52 63 62 
52 53 64 63 
53 54 65 64 
55 56 67 66 
56 57 68 67 
57 58 69 68 
58 59 70 69 
59 60 71 70 
60 61 72 71 
61 62 73 72 
62 63 74 73 
63 64 75 74 
64 65 76 75 
66 67 78 77 
67 68 79 78 
68 69 80 79 
69 70 81 80 
70 71 82 81 
71 72 83 82 
72 73 84 83 
73 74 85 84 
74 75 86 85 
75 76 87 86 
77 78 89 88 
78 79 90 89 
79 80 91 90 
80 81 92 91 
81 82 93 92 
82 83 94 93 
83 84 95 94 
84 85 96 95 
85 86 97 96 
86 87 98 97 
88 89 100 99 
89 90 101 100 
90 91 102 101 
91 92 103 102 
92 93 104 103 
93 94 105 104 
94 95 106 105 
95 96 107 106 
96 97 108 107 
97 98 109 108 
99 100 111 110 
100 101 112 111 
101 102 113 112 
102 103 114 113 
103 104 115 114 
104 105 116 115 
105 106 117 116 
106 107 118 117 
107 108 119 118 
108 109 120 119 
</DataArray>
<DataArray type="Int64" Name="offsets" format="ascii" RangeMin="4" RangeMax="400">
4
8
12
16
20
24
28
32
36
40
44
48
52
56
60
64
68
72
76
80
84
88
92
96
100
104
108
112
116
120
124
128
132
136
140
144
148
152
156
160
164
168
172
176
180
184
188
192
196
200
204
208
212
216
220
224
228
232
236
240
244
248
252
256
260
264
268
272
276
280
284
288
292
296
300
304
308
312
316
320
324
328
332
336
340
344
348
352
356
360
364
368
372
376
380
384
388
392
396
400
</DataArray>
<DataArray type="Int64" Name="types" format="ascii" RangeMin="9" RangeMax="9">
9
9
9
9
9
9
9
9
9
9
9
9
9
9
9
9
9
9
9
9
9
9
9
9
9
9
9
9
9
9
9
9
9
9
9
9
9
9
9
9
9
9
9
9
9
9
9
9
9
9
9
9
9
9
9
9
9
9
9
9
9
9
9
9
9
9
9
9
9
9
9
9
9
9
9
9
9
9
9
9
9
9
9
9
9
9
9
9
9
9
9
9
9
9
9
9
9
9
9
9
</DataArray>
</Cells>
<PointData>
</PointData>
<CellData>
<DataArray type="Float64" Name="seed" NumberOfComponents="1" format="ascii">
2.4875311979817064e-03 
2.438274780070832e-03 
2.342668658443509e-03 
2.206242256461489e-03 
2.036618291028537e-03 
1.8428084359790695e-03 
1.6344244628246182e-03 
1.4209003668938516e-03 
1.2108114223884066e-03 
1.0113547127575471e-03 
2.1944473020637484e-02 
2.1509943341244748e-02 
2.066652639903279e-02 
1.9463001594991678e-02 
1.7966614922085983e-02 
1.6256865456946625e-02 
1.4418546210727171e-02 
1.2534881890773912e-02 
1.068152174864803e-02 
8.92195692918734e-03 
5.8566716461087714e-02 
5.7407017775091086e-02 
5.5156056411537216e-02 
5.194401774075785e-02 
4.795037187349098e-02 
4.338729067987367e-02 
3.8481074797767814e-02 
3.345383928243689e-02 
2.8507481361602454e-02 
2.381144998370858e-02 
1.0810587056661293e-01 
1.059652309060658e-01 
1.0181027477188538e-01 
9.588130593462885e-02 
8.850960082115383e-02 
8.008679867840626e-02 
7.103061845913117e-02 
6.1751053122916115e-02 
5.262077638081555e-02 
4.395256701222907e-02 
1.6496608157331144e-01 
1.6169953429877387e-01 
1.553592048701108e-01 
1.4631178911251963e-01 
1.3506280419884106e-01 
1.2220987902397569e-01 
1.0839043927509553e-01 
9.423012102229847e-02 
8.029761236268607e-02 
6.707020365400117e-02 
2.229798207534674e-01 
2.185645244767269e-01 
2.099944868905886e-01 
1.977653600017788e-01 
1.8256043656667975e-01 
1.6518751405851212e-01 
1.4650818210899716e-01 
1.2736809466976468e-01 
1.0853593078530038e-01 
9.065682985275703e-02 
2.7621773421736046e-01 
2.707482566236547e-01 
2.6013206563291047e-01 
2.4498315346108512e-01 
2.2614795354927342e-01 
2.0462713038364064e-01 
1.8148798384403728e-01 
1.5777807338073924e-01 
1.3444960526645208e-01 
1.123017502150715e-01 
3.1970258255111655e-01 
3.133720472693478e-01 
3.0108455354193203e-01 
2.8355075413583936e-01 
2.617503361730513e-01 
2.3684149835286816e-01 
2.1005956515187174e-01 
1.8261701288907173e-01 
1.5561595329298505e-01 
1.2998137020599826e-01 
3.4992450107024936e-01 
3.429955317065867e-01 
3.295464845401243e-01 
3.10355191307259e-01 
2.8649395028168234e-01 
2.592304462558e-01 
2.2991678060357776e-01 
1.9988004667410078e-01 
1.703265403116114e-01 
1.422686853350302e-01 
3.650990513054745e-01 
3.5786960571518106e-01 
3.4383733776475184e-01 
3.2381381002887133e-01 
2.989178212233879e-01 
2.704720295607048e-01 
2.3988717057775624e-01 
2.0854788730829055e-01 
1.7771278687178513e-01 
1.484381970608823e-01 
</DataArray>
</CellData>
</Piece>
</UnstructuredGrid>
</VTKFile>
